 title = sample
 variables = x,y,d,u,v,p
 zone n=        2085 ,e=        4035 
 ,DATAPACKING=BLOCK,ZONETYPE=FETRIANGLE,varlocation=([3,4,5,6]=cellcentered)
  -5.000000       6.000000      0.0000000E+00   1.000000      0.6769446    
  0.8460982     -0.4985942      0.2132106     -0.2483454     -0.7049554    
  -1.152849      -1.588989      -2.010447      -2.413768      -2.796715    
  -3.155822      -3.489316      -3.794028      -4.068561      -4.310233    
  -4.517989      -4.689772      -4.824843      -4.921885      -4.980448    
  -4.979691      -4.918861      -4.818086      -4.677859      -4.499564    
  -4.284084      -4.033472      -3.749129      -3.433553      -3.088775    
  -2.717515      -2.322532      -1.906531      -1.473046      -1.024595    
 -0.5654068     -9.7816087E-02  0.3736400       1.280164       1.709321    
   2.130873       2.542170       2.940625       3.323727       3.689056    
   4.034303       4.357283       4.655958       4.928481       5.173121    
   5.388330       5.572763       5.725269       5.844897       5.930886    
   5.982694       5.981980       5.928041       5.838531       5.714036    
   5.555382       5.363598       5.139931       4.885835       4.602985    
   4.293254       3.958634       3.601323       3.223677       2.828181    
   2.417438       1.994141       1.561063       1.121038       1.208333    
   1.416667       1.625000       1.833333       2.041667       2.250000    
   2.458333       2.666667       2.875000       3.083333       3.291667    
   3.500000       3.708333       3.916667       4.125000       4.333333    
   4.541667       4.750000       4.958333       5.166667       5.375000    
   5.583333       5.791667      0.6274104      0.4431286      0.2874141    
  0.1547584      4.5382444E-02 -4.6194118E-02 -0.1248769     -0.1877361    
 -0.2428034     -0.2872292     -0.3242657     -0.3583274     -0.3820681    
 -0.4036649     -0.4236965     -0.4384733     -0.4498132     -0.4604720    
 -0.4705479     -0.4787209     -0.4829111     -0.4869567     -0.4908949    
 -0.4947623     -0.4978402     -0.4970782     -0.4963001     -0.4954979    
 -0.4946629     -0.4897545     -0.4832000     -0.4762173     -0.4687326    
 -0.4568888     -0.4407235     -0.4231540     -0.4010211     -0.3705755    
 -0.3372040     -0.2913126     -0.2386815     -0.1704197     -9.1244765E-02
  1.0969989E-02  0.1333008      0.2808517      0.4598456      0.9972618    
  0.9890767      0.9755317      0.9567688      0.9329945      0.9044917    
  0.8715217      0.8344910      0.7938231      0.7499379      0.7033149    
  0.6544644      0.6039211      0.5522391      0.4999843      0.4477302    
  0.3960488      0.3455053      0.2966529      0.2500295      0.2061465    
  0.1654835      0.1284585      9.5507100E-02  6.6999763E-02  4.3225937E-02
  2.4466563E-02  1.0923095E-02  2.7382597E-03  2.9300570E-03  1.1685923E-02
  2.6166961E-02  4.6210103E-02  7.1584992E-02  0.1019693      0.1370373    
  0.1763629      0.2194511      0.2658285      0.3149528      0.3662482    
  0.4191115      0.4729217      0.5270479      0.5808551      0.6337135    
  0.6850042      0.7341272      0.7805085      0.8236323      0.8629812    
  0.8980275      0.9284251      0.9537957      0.9738345      0.9883141    
  0.9970700     -5.5399358E-02 -0.1107987     -0.1661981     -0.2215974    
 -0.2769968     -0.3323961     -0.3877955     -0.4431949      -2.248698    
  -1.831521      -2.018770      0.1997396      0.3785611      0.2030995    
 -0.1006503     -5.7878338E-02 -0.2413881     -0.4495050      0.1243341    
 -0.2032139     -0.5268189     -0.8272863     -0.2796251      6.6480383E-02
 -0.1617811      -1.690355      -1.308406      -2.064445      -2.014925    
 -0.7555155     -0.4843493     -0.3468809      -1.584219      -1.689311    
  -2.079725      -2.152085      -2.765359      -2.214752      -2.574548    
 -0.8595685      -3.085662      -3.170951     -0.3648132     -0.4918805    
  -2.423768      -3.964449     -0.5595797     -0.4296311     -0.6579139    
  -2.950950      -2.406537      -2.725308      -2.313327      -4.135349    
  -3.614030      -3.845251     -0.6530216     -0.5551064     -0.4609175    
 -0.8647535      -1.404183      -1.448540     -0.9880818     -0.9003564    
  -1.864914     -0.5701423     -0.6125062      -1.712898      -1.843526    
  -1.445704     -0.5480876     -0.5551786     -0.4760861     -0.5383996    
  -4.489949      -4.527597     -0.7830240     -0.5938470     -0.9991507    
 -0.8137622      -3.426723      -2.988988      -2.955125     -0.6951838    
 -0.5485135     -0.5935793      -3.921802      -4.102278     -0.5687423    
 -0.6980192     -0.6484044     -0.5676587     -0.6247203      -4.670390    
  -1.073779      -1.047545      -1.136480     -0.6097401      -3.813681    
  -3.347861      -3.652429     -0.7514228     -0.6389922     -0.5954847    
 -0.5827238      -4.563447     -0.7455473     -0.6779843     -0.7676799    
  -3.500911      -3.062259      -3.390259     -0.5873254     -0.6342385    
 -0.7286682     -0.8275297     -0.8388566     -0.5934711     -0.6504107    
  -3.999719      -3.507908      -3.777374     -0.6144912     -0.6609631    
 -0.5796859      -4.475383      -4.345601      -1.842983      -1.688813    
  -1.591901     -0.8535400     -0.7999833     -0.9269027      -4.204681    
  -3.863852      -3.993992      -1.473914      -1.468565      -1.608893    
  -3.456928      -3.070252     -0.6134883     -0.6660445     -0.7324871    
 -0.6072367      -3.531434     -0.6391283      -1.747012      -2.014835    
  -1.951928     -0.8762719     -0.6530957     -0.7501346      -3.339848    
 -0.5933421      -2.341478      -1.297540      -1.001886      -1.172986    
  -2.673061     -0.6652234     -0.6989599      -4.211142      -4.429793    
  -3.032360      -3.411290     -0.5499383     -0.7801142     -0.8273410    
  -1.105386      -3.557037      -1.669075     -0.9037945     -9.7207181E-02
  -2.397428      -3.624324      -4.073050      -3.710280      -2.543853    
  -2.846190      -2.641229      -2.741803      -2.905754      -2.048486    
  -1.879897      -1.827571     -0.6913863     -0.4868061      -1.143237    
 -0.8351144      -1.227782      -2.881289      -3.064430      -2.881850    
  -3.581833      -2.017639      -1.770377      -2.062917     -0.7508487    
  -2.540608      -2.535068      -2.189807      -1.376655      -1.590302    
  -1.512811      -3.410183      -3.872409      -4.749333      -3.712251    
  -2.760959      -2.407385      -2.745612      -2.986820      -3.188780    
  -1.950255      -1.859368      -2.047029      -1.550495      -1.343539    
  -1.489348      -1.477677      -1.615289      -1.184968      -1.465226    
  -1.242721      -2.132486      -2.231892      -2.084280      -3.936707    
  -3.214225      -2.108536      -1.870001      -2.030294      -4.280792    
  -3.819372      -3.888768      -4.442585      -4.628579      -1.709825    
  -1.676818      -1.535232      -1.143773      -1.128680      -1.016698    
  -1.715486      -2.273237      -2.180945      -1.693662      -1.394577    
  -2.661418      -4.573387     -0.3235630      -1.316136      -1.118140    
  -1.043725      -1.315148      -1.748469      -1.988080      -1.202228    
 -0.4001614     -0.5070271      -2.993950      -4.192620      -4.291762    
  -3.135579      -3.077156      -2.773145      -3.431785      -2.102056    
  -2.314321      -1.889466      -3.677104      -3.100784      -3.316792    
  -1.583029      -2.595958      -2.733417      -2.376446      -1.803461    
  -1.663187      -1.637705      -2.489660      -2.292841      -1.101731    
 -0.9766885     -0.8661321     -0.7887535      -2.264171      -1.898905    
  -2.126057      -1.878935      -1.067220      -1.179651     -0.9740763    
 -0.6263661      -2.320592      -2.109020      -1.918266      -1.883292    
  -1.747177      -1.737270      -2.676776      -2.749962      -1.983506    
  -1.989702      -2.623711      -2.261546      -2.540570      -4.232898    
  -1.008886      -4.137995     -0.9544588      -1.219401     -0.8495355    
  -3.448132      -3.079147      -1.030806     -0.8296540      -2.473817    
  -2.574791      -2.165078      -2.046019      -2.228138      -1.116733    
 -0.9728698     -0.7695241     -0.8199968      -2.126252      -1.614768    
  -1.464064      -3.266493      -1.407330      -1.546722      -1.571617    
 -0.9623080     -0.8863562      -1.056996      -2.557976      -2.817054    
  -1.543940      -3.746209      -1.507410      -1.517078      -1.773698    
  -2.504636      -1.343688      -1.989341      -2.188513      -1.385551    
  -1.236474      -1.354270      -2.408661      -3.278652      -3.018220    
 -0.7273203      -1.079111      -1.183768      -1.999857      -1.787718    
  -1.789418      -2.185791      -2.418878      -2.194029      -2.356736    
  -2.344557      -2.526615      -2.223458      -2.339382      -1.816831    
  -1.840199      -1.451530      -1.581287      -1.334217      -1.706518    
  -1.762592      -1.846952     -0.7893362      -1.079891      -1.116404    
 -0.8539985     -0.6922643     -0.6215790      -1.073236      -1.903908    
  -1.952081      -1.010258      -1.124802      -1.081243     -0.9130153    
  -2.665960      -1.637309      -1.404314      -1.332387      -2.344527    
  -2.533636      -1.410297      -1.414301     -0.6009642     -0.8991955    
  -1.152846      -1.613104      -1.612930     -0.9759764      -1.640758    
  -2.424000      -1.296096      -2.418914      -1.715020      -1.589191    
  -1.554867      -1.438242      -1.287700      -1.289787      -1.100063    
  -1.169036      -1.065154      -1.601210      -1.153233      -1.148135    
  -1.987536      -1.835446     -0.6951035     -0.9931614     -0.8854992    
 -0.8954166     -0.9254855      -1.037511      -2.369290      -1.744097    
  -2.103786      -2.172632      -2.110015      -1.208560      -1.276441    
  -1.793915      -1.379292      -1.235904      -1.333511      -1.399832    
  -1.569564      -1.486798      -1.411144      -2.321550      -2.376722    
  -2.287549     -0.9301717     -0.8066042      -1.248437      -1.169532    
  -1.353375      -1.292379      -1.261007     -0.9257086      -1.071931    
  -1.680387      -1.665042      -1.494198     -0.7691345      -2.373436    
  -1.951013      -1.201738      -1.499450      -1.438283      -1.555438    
  -1.716126      -2.155970      -1.195583      -1.316786      -1.040037    
 -0.8054196     -0.7756714      -1.707383     -0.8337871     -0.9692201    
 -0.8711575     -0.8686234     -0.6836208      -2.183951      -1.258428    
  -1.416093      -1.399531      -1.264160      -1.310258      -1.736549    
 -0.8656723      -1.243531     -0.9517134      -1.094306      -1.172910    
  -1.127467     -0.9256395      -1.510106      -1.537736      -1.051342    
  -1.157478      -1.205069     -0.8124533      -1.602009      -1.638784    
  -1.482878      -1.756804     -0.8120744     -0.9095586      -1.277539    
  -1.489853     -0.9373708      -1.308769      -1.337374      -1.278611    
 -0.8519325     -0.7916807      -1.711943      -1.405768     -0.9490207    
 -0.8171541      -1.147009     -0.7631680      -1.857088     -0.7300061    
  -1.305298      -1.052698     -0.9543012     -0.9365807     -0.7292143    
   1.046600      0.9929180      0.9769105     -0.4285314       1.085198    
   1.109263      0.9657338       1.135861       1.064013       1.050027    
   5.535444     -0.3601292       1.288859       5.522311       5.636477    
   5.507314       4.764181       5.082963       5.155130       5.291545    
   5.080227       5.327336       5.511989       4.683636       4.906188    
   4.886946       4.437211       4.720057       4.580734       4.911392    
   5.211215       4.538711       4.467071       4.882656       3.715168    
   3.964892       3.870385       4.523032       4.503088       4.261630    
   4.180190       4.139323       3.863924       4.007188       2.838927    
   3.041340       2.927588       4.281160       3.367428       3.238639    
   3.393277       3.616496       3.256307       3.397132       3.590857    
   3.188281       3.033304       2.993511       2.777718       2.821839    
   2.934786     -3.4102734E-02 -3.3691362E-02 -1.1081262E-02 -8.9985058E-02
 -6.6901311E-02 -9.7409770E-02 -0.1030451     -0.1560444     -4.0017802E-02
  1.3834967E-02  0.9468229      0.6341369     -0.2885617     -0.2428058    
 -0.2025686       1.536818     -0.3984341     -0.4030950     -0.1189130    
 -0.1606819      6.7096330E-02 -0.1781760     -0.2652733     -0.1779725    
  1.6674461E-02  7.4156515E-02 -0.3808818     -0.3925600     -0.1894458    
 -0.2238959     -0.1443741     -0.3820914      0.1944975      0.1333862    
 -0.1520381     -0.1850686     -0.2868204      0.2324127      0.2766856    
 -0.3559486      0.3384908      0.4201797      0.4057793      0.4715830    
  6.3198067E-02 -9.9317342E-02  5.0004363E-02  0.4821073      0.5360492    
 -8.4833033E-02  2.7276449E-02  0.5958364      0.6452536     -0.2585056    
  0.5311384      0.7627807      0.6954162      0.2170843      8.3415247E-02
  3.9730601E-02  0.7991911      0.8424470      0.8509498       1.370086    
  0.3155653      0.5940611      0.8603432      0.5124905       1.961440    
   2.199454       1.851730       3.380174      0.3502619       2.551223    
  0.1715275      0.4091310      0.3598744      0.1026169      0.7319279    
  0.7079337       3.110541       3.076795       2.902907      0.6442205    
  0.6705113      0.7028373     -0.1745880     -0.1584577       1.369496    
   1.513202       1.399024       1.481660       1.680475      0.9060398    
  0.8502638       1.029066      0.9424162      0.9849879      3.8020208E-02
 -0.1436776     -9.0307578E-02  0.9224948       1.593960       1.535701    
   1.680465       1.005168      0.9484119       1.931417       1.999765    
   1.851989       2.020049       1.915111       2.164969       2.367348    
   2.147819       1.006934       1.006185       2.767678       2.574304    
   4.858088       2.835132       3.129305       2.810237       2.675956    
   2.855400       2.953146       1.885639       1.529023       1.716993    
   1.774870       3.781998       3.926131       4.085232       3.030834    
   2.774714       1.350706       1.216478       1.318511       1.060288    
  0.9615555       1.191276       1.411565       1.410704       4.201559    
   4.157962       2.294717       2.406213       2.747099       2.271834    
   1.189642       1.052039       1.151686       4.583738       3.797209    
   3.564569       3.696589      0.7871796      0.6450149      0.6156088    
  3.5059657E-02  0.8525870       2.031946       1.646013       2.518025    
   2.209027       2.358541       4.015391       4.213526       4.462382    
   4.084796       3.852646       1.220990       1.003060       1.483718    
   1.262712       2.408328       2.357560       1.358334       1.243700    
   1.948201       1.994151       1.998701       1.905046       2.125730    
   3.730452       2.317286       2.067888       1.883646       1.952944    
   4.385579       4.397398       4.247071       4.988177       2.510502    
   2.611495       2.728666       2.388610       2.288918       1.732203    
   1.718817       1.835749      0.9406182       1.020607       1.054795    
   3.502828       2.574751       3.416808       3.106523       2.918823    
   2.765776       2.715827       3.259519       3.527226       3.526226    
   1.422860       1.678893       1.984388       1.620137      0.6348356    
  0.5067363      0.6399984      0.1607858       3.696972       1.239852    
  0.9946973       2.529945       2.229800       2.411045       2.345037    
  0.2467775       3.738358       3.485527       4.507886       5.278671    
   4.976995      0.8052897      0.7964721      0.8687692       1.885767    
   1.722066     -0.3358637      0.1508464      7.9150878E-02  0.1468911    
   3.184379       3.098785       3.502108       3.180409      0.4880627    
   4.720037       4.421576       1.860173       1.895316       2.146653    
   1.979525       2.609731       2.673704       3.969904       4.170828    
   1.616964       1.714232       1.724219       1.766505       1.251658    
   1.157794       1.163748      0.5768544       3.364150       3.171622    
   1.509530       1.666979       2.147410       4.574047       3.860952    
  0.9164634       1.071033       1.104359      0.4286974      0.3476571    
  0.4427892      0.3708832      0.3039383      0.3099783      0.5858501    
  0.6000797      0.5457215       1.681936       3.775271       2.922606    
   2.769274       3.439409       1.587938      0.2499809      0.7482527    
   3.010211     -0.2657909      0.3888442      0.2657318       2.365230    
   1.792505       1.646769       1.282225       5.078402       5.236424    
   1.670841       2.340577       2.570585       2.482305       3.166306    
   3.324935     -5.4605532E-02   2.503402       2.649241       3.297424    
   1.268709       1.328313       1.031476       1.035170      0.9734335    
   1.023591      0.7630168      0.8027747      0.1582653       2.187178    
   2.113173       2.110867       2.607405       4.797200       2.270105    
   2.473254      0.8172194      0.7417282      0.7642555      0.9605232    
  0.9087745      0.9163109       3.529500       4.358069       1.142138    
   1.224367       1.229864       1.455798       1.517746       1.576316    
   2.008976      0.4076211      0.3532977      0.4083595       1.337292    
   1.221978       1.115092       1.063993      0.9993550       1.192163    
  0.4753501      0.3380162      0.4693669       1.306480       1.386344    
   1.273151       1.312883       1.290224      0.3901967      0.4384575    
  0.4504651      0.1724050      0.1572945      0.1146424       1.481797    
   1.577349       2.177621       1.988729       3.198442       3.308573    
   2.857998      0.9695540       1.482118       2.634427       2.168818    
  4.0057473E-02   1.404211       1.450242       1.323202       1.304211    
   1.412884       1.377343       3.586390      0.7279409      0.7190391    
  0.7975850      0.8730508       1.105156       1.179947      0.7871763    
  0.8350819       1.167695       1.442153       2.293064       3.536964    
   1.693663      0.2754151      0.1544939      0.1601405       1.620128    
   1.498102       1.603862       1.484279     -0.3436076      0.4194179    
  0.4621877       1.868276       2.157329       1.830725       2.049784    
   1.838320       1.730968       1.371786      0.2319471      0.2111229    
  1.7089076E-02  5.2748956E-02   1.132658       1.088947      0.1779945    
  0.3723935       1.093007       1.103621       1.010125      0.5518929    
  0.5959649      0.5078498      0.1844119      0.5277219      0.9408995    
   1.837024       1.427588       1.384023       1.435140       1.544407    
  0.7465276      0.7755994      0.7070819      0.9566342      0.9202650    
  0.5630407      0.5180160      0.4653563      0.7953595      0.7396273    
   1.505937      0.6333485      0.6899964      0.6864661      0.3561527    
  0.3001111      0.3107525      0.9681962       1.022443       1.205146    
   1.219439       1.290656       1.244007      0.9478175      0.7447247    
  0.8758425       2.044267     -0.1229938     -5.5445012E-02 -0.2277592    
 -0.1802289       1.343337       1.336738       1.029224     -0.2649129    
  0.6177939      0.5257446       1.112875       1.101544       1.179411    
 -0.2908171      0.5563286       1.222015       1.824076      0.2991824    
  0.2553250      4.6596136E-02  0.1139336       1.633692      0.1368490    
   1.935151       1.051732       1.078135      1.4092566E-02  8.4796660E-03
 -2.7802713E-02  7.6800324E-02   1.253459       1.085257       1.165865    
  0.7956541      0.8691341      0.8824480      0.8290037      0.2905386    
  0.2654259      0.2291149      0.6205369      0.8695433      0.4726514    
  0.4575377      0.4847817      0.8604456       1.201689       1.148529    
  7.4212223E-02  2.7775405E-02  9.6875250E-02   1.506658      0.6374870    
  0.7119895      0.6700791      0.6287802      0.6230867      0.6756923    
 -0.2329339     -0.1720587     -4.4356830E-02   1.277219       1.073969    
   1.038456       1.007953      0.7803166      0.8041955      0.8656403    
  0.5749760      0.8551627      0.7947955      0.2082411      0.1776152    
  0.5917945      0.7133850      0.6707842       1.387713       1.234261    
  0.9469375       1.031202      0.9492755      0.9279338      0.8777003    
   1.158105       1.078971       1.120287       1.029754      0.9636232    
 -4.3592725E-02 -0.1120035     -0.1127827      0.6563013      0.2312658    
  0.5245212      0.5139463      0.4173777       1.214426     -9.9746734E-03
 -9.7363226E-02 -4.3867629E-02  5.6930013E-02  0.9900899      0.9257934    
  0.2531594      0.2046669      0.1451910       1.097590      0.6528022    
  0.5729181      0.6402051      0.3852549      0.8018564      0.7400861    
 -0.3134390       1.075124       1.070662     -0.3336181       1.041737    
  0.9532098      0.6378092      0.2575817      0.3150205      0.1154126    
  0.3310328      0.9402368       1.148440     -0.2173886     -0.1604698    
 -4.2812090E-02  1.2812246E-02  0.1157385       1.106311      0.4851106    
  0.3289365      0.7399269      0.7412530      0.5571128      0.9174615    
  0.8159805      0.8876677      0.9391020     -7.6291859E-02  0.9626132    
  0.9789961      0.4606779     -0.1073702      0.7321378      0.5140074    
   1.150940     -3.8931437E-02 -1.5905561E-02  0.2585357       1.156550    
  0.1008274      0.1945328      0.9141387      0.2130631      0.6867023    
  0.3659899       1.144232      0.3662710      0.1055778     -5.7049066E-02
  0.3689838     -0.2100770     -0.4305482       1.067423     -4.0999696E-02
  0.8020958      0.9505550       5.528538       1.047621     -0.3746454    
   1.392840       2.077163       1.759336       1.661909       1.129478    
   1.224580       1.155313       5.131732       5.530313       4.930727    
   4.777644       5.052186       5.629736       4.776291       4.964817    
   4.672601       4.504475       4.549737       4.253272       3.987704    
   5.475706       5.489264       5.137761       3.775037       4.914435    
   5.316644       3.329440       3.371309       3.212543       4.169871    
   4.360145       3.566792       2.750451       5.187797       2.516736    
   2.738842       2.541588       4.308082       3.736106       3.889310    
   2.986967       4.823503       4.855389       3.253689       3.496022    
   3.384831       4.405069       4.091092       4.383717       2.345036    
   2.152155       2.164986       2.145833       1.976742       4.007284    
   1.239829      0.8014423       3.163185       2.866460       2.654989    
   2.396908       1.520300       1.196928       1.108985       3.664451    
   3.296282      0.8640226      0.8446254       1.152479     -0.1077671    
 -0.1769353      0.4851270      0.2936300       1.339130       1.538087    
   1.047891       1.018691      0.9893128       1.066664       1.116250    
   1.279045       1.354595       1.257267      0.9529012      0.8881825    
  0.8925530      0.8301523      0.9501764      0.8921551      0.9502411    
   1.084105       1.161803       1.104002       2.090814       2.289479    
   2.300181      0.7062327      0.7274051      0.6810637      0.8249126    
  0.8297994      0.8897876      0.5500112      0.2270709      0.5558720    
  0.6405182      0.5415230      0.5669823      0.5029956      0.2218496    
  3.9799679E-02  0.5026621      0.4505168      0.1608266     -0.1185983    
 -9.1941893E-02  0.6855591      0.6743265      0.6327513      6.6496953E-02
  0.3827977      0.3268082      4.2658105E-02 -0.2090379     -4.6900719E-02
  0.3932508      0.4467199      0.5188125      0.4629183     -0.2964254    
  0.2156926      0.1550031      0.1838234      0.1149715     -0.2896093    
  8.1688657E-02 -0.3720477     -0.2490044     -0.2730367      9.2744417E-02
 -0.3637190      9.2805229E-02  0.1013009      0.1402563     -0.3344776    
 -9.3712490E-03 -8.2585244E-03  4.3718319E-02 -5.2410644E-02 -1.5312313E-02
 -6.3506700E-02 -0.3758307     -0.2656327     -0.3872644     -0.1174541    
 -0.1788912     -0.1884547     -8.3364569E-02 -0.1322992     -9.2639193E-02
 -0.4018027     -0.4173408     -0.3004017     -0.3674923     -0.3255445    
 -0.2692944     -0.2114880       3.065305       1.957679       2.063928    
   3.448988       3.707021       1.966488       2.177360       1.231371    
  0.9505421       1.915793       2.123559       2.013061       2.997991    
   2.349657       2.553178       2.359787       2.606912       1.362979    
   1.827659       1.506452       1.305391       1.104659       4.573499    
   4.577407       4.223075       2.763674       2.800929       2.477836    
   2.131486       2.017053       3.891977       3.532712       4.137575    
   3.862076       3.936042      0.7863265       3.514659       3.237165    
   2.894940       3.132310       3.147888     -0.2397424      0.8699903    
  0.9505908      0.9383005       4.763299       4.394754       1.836862    
   1.742114       1.559747       2.273653       2.460585      0.6176779    
  0.6450149      0.4848151       2.654532       2.519381       2.383012    
  0.8151553      0.7233500      0.9311694       3.346717       3.137936    
   2.002769       1.970593       2.150573       2.265417       2.119617    
   3.704320       3.644164       4.420820       4.556238       4.330771    
   5.063139       2.775406       2.824122       2.977243       3.458732    
  0.9077040      0.8807112      0.8015033       1.605461       1.576130    
   1.472351       2.532479       3.751578       3.567560       3.831028    
   4.044841       2.662181       2.437158       2.135703       1.846423    
   2.160485      0.6957080      0.6796401      0.8835465      0.1096713    
  0.3033951      0.2513495       3.516558       3.413115       2.300310    
   3.034367       3.010905       1.483131       1.380634       1.047140    
   1.115052       1.256840     -0.2130080     -0.3622573      0.3649125    
  0.2865405      0.3182575       2.414036       1.667640       2.398274    
   2.482080       2.605480       1.618848       1.503834       1.483237    
   1.547708       1.869827       1.997183       3.317459       3.250534    
   3.521293       4.243760       4.528531      0.2769943      0.5033687    
   1.444827       1.492048       1.655379       3.687889       1.755231    
   1.956179       1.875672       1.820788       1.244259       1.142778    
   1.130074       1.565886       1.407766       1.510775       1.332632    
   5.264057       4.963163       1.888710      0.4154615       1.074468    
   1.180530       1.120265       3.128314       3.147127       3.494024    
  0.6137027      0.5568393      0.6918765       3.114031       2.715593    
   1.211007       1.298370       1.124414       1.019244       1.173302    
  0.3372140      0.5803916       2.548805       2.268766       2.152519    
   2.817677       1.697014       1.583725       1.432788       5.307478    
  0.1367953      0.2988503      0.2236111       2.875853       2.964586    
   3.436971       4.727065       4.410875       4.140328       5.224666    
   2.616941       3.240240      0.7839068      0.7990369       1.495716    
   1.576339       1.617983      4.8917793E-02  0.4295231       2.430958    
   2.498567       2.833532       2.680151       2.229561       1.288507    
   3.933241       1.925109       1.757810       1.878947       1.485768    
   1.859460       1.059250       1.133712      0.1265567     -0.1209300    
 -0.1191925       1.110947       1.096849       1.187525      0.9457861    
  0.7629017      0.2103773      0.3400577       3.031485       1.470852    
   1.372146       1.469500       1.691244      0.2632589      0.2826827    
  0.1917415       1.789874       1.704295       1.697466       1.853287    
   2.805857       1.344461       2.921354       2.222670      0.5495590    
   2.107547       2.681811       1.362540       1.440277       1.125670    
   1.195448       1.199980      0.7213882      0.7901757      0.8169702    
  0.4161629      0.4157314      0.4990014       1.354486       1.306412    
   1.410030      0.6680941      0.1282282       1.444249      0.9091875    
  0.9463614       2.152981      0.5331868      0.4224185      0.4876215    
 -5.5168297E-02   1.297201       1.426565       1.348220       1.857704    
  0.6055173      0.8333067      0.7951180      0.7784349       1.721386    
   1.748593       1.764215      2.4300316E-02  4.9352732E-02 -1.2662815E-02
  0.2143212      0.2389785      0.1622916       1.227262      0.8795280    
  0.8217732      0.5521826      0.4146658      0.8934290      0.4818729    
  0.2915028      0.4203286       1.094204       1.016814       1.011461    
   1.588668       1.588775       1.221843       1.724793       1.396322    
   1.343095       1.672950       1.572869       1.543998       1.032727    
  0.9535017      0.9837461      0.7204722      0.6505845      0.7206460    
   1.312988      1.9852167E-02   1.236212       1.198301      0.9700506    
   1.026436      0.4145251      0.3677418      0.4937314      0.5663376    
  0.8776916      0.9067228       2.014743     -5.9079543E-02 -0.1123577    
 -0.1450490      2.9736212E-02  1.0069604E-02 -2.7567444E-02 -0.1802521    
  0.1960583      1.9593887E-02   1.030351      0.9624478     -7.4362509E-02
 -0.1541966     -0.1223293      0.6601393      0.5674269      0.6409557    
  0.3239860      0.3851198      0.8796167      0.8323637      0.9242558    
  0.8637585      0.8268133       1.818513       1.415082      4.7385372E-02
  0.1017777     -1.0691113E-03  0.3764291      0.4270769      0.1272135    
 -8.8779747E-02 -8.2825355E-02  0.8911917      0.7609786      0.7737690    
  0.9928967       1.186298      0.4305649      0.3497195      0.3576565    